HEADER
"PSFversion" "1.00"
"design" "(\"logic_gates\" \"nor_gate\" \"schematic\" \"\")"
"simulator" "spectre"
"temperature" "27"
"host" ""
"date" "Oct 31 17:26:02 2024"
"title" ""
"analysisList" "()"
END
