HEADER
"PSFversion" "1.00"
"design" "(\"lab1\" \"inverter\" \"schematic\" \"\")"
"simulator" "spectre"
"temperature" "27"
"host" ""
"date" "Oct 17 15:20:25 2024"
"title" ""
"analysisList" "()"
END
