HEADER
"PSFversion" "1.00"
"Time Stamp" "Oct 17 15:20:25 2024"
TYPE
"variable" STRUCT(
"value" FLOAT DOUBLE
) PROP( "key" "element" )
VALUE
"temperature" "variable" ( 27 ) PROP( )
"temp" "variable" ( 27 ) PROP( )
END
