HEADER
"PSFversion" "1.00"
"design" "(\"fanout-tests\" \"fanout-question-2\" \"schematic\" \"\")"
"simulator" "spectre"
"temperature" "27"
"host" ""
"date" "Oct 23 19:03:11 2024"
"title" ""
"analysisList" "()"
END
