HEADER
"PSFversion" "1.00"
"Time Stamp" "Oct 23 19:03:11 2024"
TYPE
"variable" STRUCT(
"value" FLOAT DOUBLE
) PROP( "key" "element" )
VALUE
"temp" "variable" ( 27 ) PROP( )
END
