HEADER
"PSFversion" "1.00"
"simulator" "spectre"
"version" "23.1.0.594.isr12"
"date" "3:36:30 PM, Thur Oct 24, 2024"
"design" "// Point Netlist Generated on: Oct 24 15:36:22 2024"
"analysis type" "info"
"analysis name" "designParamVals"
"analysis description" "Circuit Information"
"xVecSorted" "unknown"
"tolerance.relative" 1.000000000000000e-03
TYPE
"top-level" STRUCT(
"temp" FLOAT DOUBLE
"tnom" FLOAT DOUBLE
"temper" FLOAT DOUBLE
"time" FLOAT DOUBLE
"temperature" FLOAT DOUBLE
"random1" FLOAT DOUBLE
"random2" FLOAT DOUBLE
"random3" FLOAT DOUBLE
"random4" FLOAT DOUBLE
"random5" FLOAT DOUBLE
"random6" FLOAT DOUBLE
"random7" FLOAT DOUBLE
"random8" FLOAT DOUBLE
"random9" FLOAT DOUBLE
"random10" FLOAT DOUBLE
"random11" FLOAT DOUBLE
"random12" FLOAT DOUBLE
"random13" FLOAT DOUBLE
"random14" FLOAT DOUBLE
"random15" FLOAT DOUBLE
"random16" FLOAT DOUBLE
"random17" FLOAT DOUBLE
"random18" FLOAT DOUBLE
"random19" FLOAT DOUBLE
"random20" FLOAT DOUBLE
"random21" FLOAT DOUBLE
"random22" FLOAT DOUBLE
"random23" FLOAT DOUBLE
"random24" FLOAT DOUBLE
"a1" FLOAT DOUBLE
"a2" FLOAT DOUBLE
"a3" FLOAT DOUBLE
"a4" FLOAT DOUBLE
"tox_n" FLOAT DOUBLE
"dxl_n" FLOAT DOUBLE
"dxw_n" FLOAT DOUBLE
"dvth0_n" FLOAT DOUBLE
"dlvth0_n" FLOAT DOUBLE
"dwvth0_n" FLOAT DOUBLE
"dpvth0_n" FLOAT DOUBLE
"du0_n" FLOAT DOUBLE
"dlu0_n" FLOAT DOUBLE
"dwu0_n" FLOAT DOUBLE
"dpu0_n" FLOAT DOUBLE
"dvsat_n" FLOAT DOUBLE
"dcgso_n" FLOAT DOUBLE
"dcgdo_n" FLOAT DOUBLE
"dcgsl_n" FLOAT DOUBLE
"dcgdl_n" FLOAT DOUBLE
"dcj_n" FLOAT DOUBLE
"dcjsw_n" FLOAT DOUBLE
"dcjswg_n" FLOAT DOUBLE
"tox_p" FLOAT DOUBLE
"dxl_p" FLOAT DOUBLE
"dxw_p" FLOAT DOUBLE
"dvth0_p" FLOAT DOUBLE
"dlvth0_p" FLOAT DOUBLE
"dwvth0_p" FLOAT DOUBLE
"dpvth0_p" FLOAT DOUBLE
"du0_p" FLOAT DOUBLE
"dlu0_p" FLOAT DOUBLE
"dwu0_p" FLOAT DOUBLE
"dpu0_p" FLOAT DOUBLE
"dvsat_p" FLOAT DOUBLE
"dcgso_p" FLOAT DOUBLE
"dcgdo_p" FLOAT DOUBLE
"dcgsl_p" FLOAT DOUBLE
"dcgdl_p" FLOAT DOUBLE
"dcj_p" FLOAT DOUBLE
"dcjsw_p" FLOAT DOUBLE
"dcjswg_p" FLOAT DOUBLE
"rn1" FLOAT DOUBLE
"rn2" FLOAT DOUBLE
"rp1" FLOAT DOUBLE
"rp2" FLOAT DOUBLE
"a5" FLOAT DOUBLE
"a6" FLOAT DOUBLE
"a7" FLOAT DOUBLE
"a8" FLOAT DOUBLE
"tox_n_hvt" FLOAT DOUBLE
"dxl_n_hvt" FLOAT DOUBLE
"dxw_n_hvt" FLOAT DOUBLE
"dvth0_n_hvt" FLOAT DOUBLE
"dlvth0_n_hvt" FLOAT DOUBLE
"dwvth0_n_hvt" FLOAT DOUBLE
"dpvth0_n_hvt" FLOAT DOUBLE
"du0_n_hvt" FLOAT DOUBLE
"dlu0_n_hvt" FLOAT DOUBLE
"dwu0_n_hvt" FLOAT DOUBLE
"dpu0_n_hvt" FLOAT DOUBLE
"dvsat_n_hvt" FLOAT DOUBLE
"dcj_n_hvt" FLOAT DOUBLE
"dcjsw_n_hvt" FLOAT DOUBLE
"dcjswg_n_hvt" FLOAT DOUBLE
"dcgso_n_hvt" FLOAT DOUBLE
"dcgdo_n_hvt" FLOAT DOUBLE
"dcgsl_n_hvt" FLOAT DOUBLE
"dcgdl_n_hvt" FLOAT DOUBLE
"tox_p_hvt" FLOAT DOUBLE
"dxl_p_hvt" FLOAT DOUBLE
"dxw_p_hvt" FLOAT DOUBLE
"dvth0_p_hvt" FLOAT DOUBLE
"dlvth0_p_hvt" FLOAT DOUBLE
"dwvth0_p_hvt" FLOAT DOUBLE
"dpvth0_p_hvt" FLOAT DOUBLE
"du0_p_hvt" FLOAT DOUBLE
"dlu0_p_hvt" FLOAT DOUBLE
"dwu0_p_hvt" FLOAT DOUBLE
"dpu0_p_hvt" FLOAT DOUBLE
"dvsat_p_hvt" FLOAT DOUBLE
"dcj_p_hvt" FLOAT DOUBLE
"dcjsw_p_hvt" FLOAT DOUBLE
"dcjswg_p_hvt" FLOAT DOUBLE
"dcgso_p_hvt" FLOAT DOUBLE
"dcgdo_p_hvt" FLOAT DOUBLE
"dcgsl_p_hvt" FLOAT DOUBLE
"dcgdl_p_hvt" FLOAT DOUBLE
"rn1_hvt" FLOAT DOUBLE
"rn2_hvt" FLOAT DOUBLE
"rp1_hvt" FLOAT DOUBLE
"rp2_hvt" FLOAT DOUBLE
"a9" FLOAT DOUBLE
"a10" FLOAT DOUBLE
"a11" FLOAT DOUBLE
"a12" FLOAT DOUBLE
"tox_n_lvt" FLOAT DOUBLE
"dxl_n_lvt" FLOAT DOUBLE
"dxw_n_lvt" FLOAT DOUBLE
"dvth0_n_lvt" FLOAT DOUBLE
"dlvth0_n_lvt" FLOAT DOUBLE
"dwvth0_n_lvt" FLOAT DOUBLE
"dpvth0_n_lvt" FLOAT DOUBLE
"du0_n_lvt" FLOAT DOUBLE
"dlu0_n_lvt" FLOAT DOUBLE
"dwu0_n_lvt" FLOAT DOUBLE
"dpu0_n_lvt" FLOAT DOUBLE
"dvsat_n_lvt" FLOAT DOUBLE
"dpvsat_n_lvt" FLOAT DOUBLE
"dcgso_n_lvt" FLOAT DOUBLE
"dcgdo_n_lvt" FLOAT DOUBLE
"dcgsl_n_lvt" FLOAT DOUBLE
"dcgdl_n_lvt" FLOAT DOUBLE
"dcj_n_lvt" FLOAT DOUBLE
"dcjsw_n_lvt" FLOAT DOUBLE
"dcjswg_n_lvt" FLOAT DOUBLE
"tox_p_lvt" FLOAT DOUBLE
"dxl_p_lvt" FLOAT DOUBLE
"dxw_p_lvt" FLOAT DOUBLE
"dvth0_p_lvt" FLOAT DOUBLE
"dlvth0_p_lvt" FLOAT DOUBLE
"dwvth0_p_lvt" FLOAT DOUBLE
"dpvth0_p_lvt" FLOAT DOUBLE
"du0_p_lvt" FLOAT DOUBLE
"dlu0_p_lvt" FLOAT DOUBLE
"dwu0_p_lvt" FLOAT DOUBLE
"dpu0_p_lvt" FLOAT DOUBLE
"dvsat_p_lvt" FLOAT DOUBLE
"dcgso_p_lvt" FLOAT DOUBLE
"dcgdo_p_lvt" FLOAT DOUBLE
"dcgsl_p_lvt" FLOAT DOUBLE
"dcgdl_p_lvt" FLOAT DOUBLE
"dcj_p_lvt" FLOAT DOUBLE
"dcjsw_p_lvt" FLOAT DOUBLE
"dcjswg_p_lvt" FLOAT DOUBLE
"rn1_lvt" FLOAT DOUBLE
"rn2_lvt" FLOAT DOUBLE
"rp1_lvt" FLOAT DOUBLE
"rp2_lvt" FLOAT DOUBLE
"a17" FLOAT DOUBLE
"a18" FLOAT DOUBLE
"a19" FLOAT DOUBLE
"a20" FLOAT DOUBLE
"tox_n_na" FLOAT DOUBLE
"dxl_n_na" FLOAT DOUBLE
"dxw_n_na" FLOAT DOUBLE
"dvth0_n_na" FLOAT DOUBLE
"dlvth0_n_na" FLOAT DOUBLE
"dwvth0_n_na" FLOAT DOUBLE
"dpvth0_n_na" FLOAT DOUBLE
"du0_n_na" FLOAT DOUBLE
"dlu0_n_na" FLOAT DOUBLE
"dwu0_n_na" FLOAT DOUBLE
"dpu0_n_na" FLOAT DOUBLE
"dvsat_n_na" FLOAT DOUBLE
"dcgso_n_na" FLOAT DOUBLE
"dcgdo_n_na" FLOAT DOUBLE
"dcgsl_n_na" FLOAT DOUBLE
"dcgdl_n_na" FLOAT DOUBLE
"dcj_n_na" FLOAT DOUBLE
"dcjsw_n_na" FLOAT DOUBLE
"dcjswg_n_na" FLOAT DOUBLE
"rn1_na" FLOAT DOUBLE
"rn2_na" FLOAT DOUBLE
"a13" FLOAT DOUBLE
"a14" FLOAT DOUBLE
"a15" FLOAT DOUBLE
"a16" FLOAT DOUBLE
"tox_n_18" FLOAT DOUBLE
"dxl_n_18" FLOAT DOUBLE
"dxw_n_18" FLOAT DOUBLE
"dvth0_n_18" FLOAT DOUBLE
"dlvth0_n_18" FLOAT DOUBLE
"dwvth0_n_18" FLOAT DOUBLE
"dpvth0_n_18" FLOAT DOUBLE
"du0_n_18" FLOAT DOUBLE
"dlu0_n_18" FLOAT DOUBLE
"dwu0_n_18" FLOAT DOUBLE
"dpu0_n_18" FLOAT DOUBLE
"dvsat_n_18" FLOAT DOUBLE
"dcgso_n_18" FLOAT DOUBLE
"dcgdo_n_18" FLOAT DOUBLE
"dcgsl_n_18" FLOAT DOUBLE
"dcgdl_n_18" FLOAT DOUBLE
"dcj_n_18" FLOAT DOUBLE
"dcjsw_n_18" FLOAT DOUBLE
"dcjswg_n_18" FLOAT DOUBLE
"tox_p_18" FLOAT DOUBLE
"dxl_p_18" FLOAT DOUBLE
"dxw_p_18" FLOAT DOUBLE
"dvth0_p_18" FLOAT DOUBLE
"dlvth0_p_18" FLOAT DOUBLE
"dwvth0_p_18" FLOAT DOUBLE
"dpvth0_p_18" FLOAT DOUBLE
"du0_p_18" FLOAT DOUBLE
"dlu0_p_18" FLOAT DOUBLE
"dwu0_p_18" FLOAT DOUBLE
"dpu0_p_18" FLOAT DOUBLE
"dvsat_p_18" FLOAT DOUBLE
"dcgso_p_18" FLOAT DOUBLE
"dcgdo_p_18" FLOAT DOUBLE
"dcgsl_p_18" FLOAT DOUBLE
"dcgdl_p_18" FLOAT DOUBLE
"dcj_p_18" FLOAT DOUBLE
"dcjsw_p_18" FLOAT DOUBLE
"dcjswg_p_18" FLOAT DOUBLE
"rn1_18" FLOAT DOUBLE
"rn2_18" FLOAT DOUBLE
"rp1_18" FLOAT DOUBLE
"rp2_18" FLOAT DOUBLE
"a21" FLOAT DOUBLE
"a22" FLOAT DOUBLE
"a23" FLOAT DOUBLE
"a24" FLOAT DOUBLE
"tox_n_na18" FLOAT DOUBLE
"dxl_n_na18" FLOAT DOUBLE
"dxw_n_na18" FLOAT DOUBLE
"dvth0_n_na18" FLOAT DOUBLE
"dlvth0_n_na18" FLOAT DOUBLE
"dwvth0_n_na18" FLOAT DOUBLE
"dpvth0_n_na18" FLOAT DOUBLE
"du0_n_na18" FLOAT DOUBLE
"dlu0_n_na18" FLOAT DOUBLE
"dwu0_n_na18" FLOAT DOUBLE
"dpu0_n_na18" FLOAT DOUBLE
"dvsat_n_na18" FLOAT DOUBLE
"dcgso_n_na18" FLOAT DOUBLE
"dcgdo_n_na18" FLOAT DOUBLE
"dcgsl_n_na18" FLOAT DOUBLE
"dcgdl_n_na18" FLOAT DOUBLE
"dcj_n_na18" FLOAT DOUBLE
"dcjsw_n_na18" FLOAT DOUBLE
"dcjswg_n_na18" FLOAT DOUBLE
"rn1_na18" FLOAT DOUBLE
"rn2_na18" FLOAT DOUBLE
"a1_v" FLOAT DOUBLE
"a2_v" FLOAT DOUBLE
"cgmin_v" FLOAT DOUBLE
"dcg_v" FLOAT DOUBLE
"dxl_v" FLOAT DOUBLE
"dxw_v" FLOAT DOUBLE
"a1_v18" FLOAT DOUBLE
"a2_v18" FLOAT DOUBLE
"cgmin_v18" FLOAT DOUBLE
"dcg_v18" FLOAT DOUBLE
"dxl_v18" FLOAT DOUBLE
"dxw_v18" FLOAT DOUBLE
"statis_dio" FLOAT DOUBLE
"dio_stat" FLOAT DOUBLE
"is_dio" FLOAT DOUBLE
"isw_dio" FLOAT DOUBLE
"n_dio" FLOAT DOUBLE
"rs_dio" FLOAT DOUBLE
"cjo_dio" FLOAT DOUBLE
"cjsw_dio" FLOAT DOUBLE
"statis_dio_hvt" FLOAT DOUBLE
"dio_hvt_stat" FLOAT DOUBLE
"is_dio_hvt" FLOAT DOUBLE
"isw_dio_hvt" FLOAT DOUBLE
"n_dio_hvt" FLOAT DOUBLE
"rs_dio_hvt" FLOAT DOUBLE
"cjo_dio_hvt" FLOAT DOUBLE
"cjsw_dio_hvt" FLOAT DOUBLE
"statis_dio_lvt" FLOAT DOUBLE
"dio_lvt_stat" FLOAT DOUBLE
"is_dio_lvt" FLOAT DOUBLE
"isw_dio_lvt" FLOAT DOUBLE
"n_dio_lvt" FLOAT DOUBLE
"rs_dio_lvt" FLOAT DOUBLE
"cjo_dio_lvt" FLOAT DOUBLE
"cjsw_dio_lvt" FLOAT DOUBLE
"statis_dio_na" FLOAT DOUBLE
"dio_na_stat" FLOAT DOUBLE
"is_dio_na" FLOAT DOUBLE
"isw_dio_na" FLOAT DOUBLE
"n_dio_na" FLOAT DOUBLE
"rs_dio_na" FLOAT DOUBLE
"cjo_dio_na" FLOAT DOUBLE
"cjsw_dio_na" FLOAT DOUBLE
"statis_dio_18" FLOAT DOUBLE
"dio_18_stat" FLOAT DOUBLE
"is_dio_18" FLOAT DOUBLE
"isw_dio_18" FLOAT DOUBLE
"n_dio_18" FLOAT DOUBLE
"rs_dio_18" FLOAT DOUBLE
"cjo_dio_18" FLOAT DOUBLE
"cjsw_dio_18" FLOAT DOUBLE
"statis_dio_na18" FLOAT DOUBLE
"dio_na18_stat" FLOAT DOUBLE
"is_dio_na18" FLOAT DOUBLE
"isw_dio_na18" FLOAT DOUBLE
"n_dio_na18" FLOAT DOUBLE
"rs_dio_na18" FLOAT DOUBLE
"cjo_dio_na18" FLOAT DOUBLE
"cjsw_dio_na18" FLOAT DOUBLE
"statis_bjt_pnp" FLOAT DOUBLE
"bjt_pnp_stat" FLOAT DOUBLE
"bf_pnp" FLOAT DOUBLE
"is_pnp" FLOAT DOUBLE
"nf_pnp" FLOAT DOUBLE
"rb_pnp" FLOAT DOUBLE
"re_pnp" FLOAT DOUBLE
"rc_pnp" FLOAT DOUBLE
"rbm_pnp" FLOAT DOUBLE
"cje_pnp" FLOAT DOUBLE
"cjc_pnp" FLOAT DOUBLE
"statis_bjt_npn" FLOAT DOUBLE
"bjt_npn_stat" FLOAT DOUBLE
"bf_npn" FLOAT DOUBLE
"is_npn" FLOAT DOUBLE
"nf_npn" FLOAT DOUBLE
"rb_npn" FLOAT DOUBLE
"re_npn" FLOAT DOUBLE
"rc_npn" FLOAT DOUBLE
"rbm_npn" FLOAT DOUBLE
"cje_npn" FLOAT DOUBLE
"cjc_npn" FLOAT DOUBLE
"random_mimfactor_b" FLOAT DOUBLE
"mimfactor_b_mis" FLOAT DOUBLE
"var_mimfactor_b" FLOAT DOUBLE
"par_mimfactor_b" FLOAT DOUBLE
"mimfactor_b" FLOAT DOUBLE
"random1_cap" FLOAT DOUBLE
"random2_cap" FLOAT DOUBLE
"random3_cap" FLOAT DOUBLE
"random4_cap" FLOAT DOUBLE
"a1_cap" FLOAT DOUBLE
"a2_cap" FLOAT DOUBLE
"a3_cap" FLOAT DOUBLE
"a4_cap" FLOAT DOUBLE
"tox_n_cap" FLOAT DOUBLE
"dxl_n_cap" FLOAT DOUBLE
"dxw_n_cap" FLOAT DOUBLE
"dvth0_n_cap" FLOAT DOUBLE
"dlvth0_n_cap" FLOAT DOUBLE
"dwvth0_n_cap" FLOAT DOUBLE
"dpvth0_n_cap" FLOAT DOUBLE
"du0_n_cap" FLOAT DOUBLE
"dlu0_n_cap" FLOAT DOUBLE
"dwu0_n_cap" FLOAT DOUBLE
"dpu0_n_cap" FLOAT DOUBLE
"dvsat_n_cap" FLOAT DOUBLE
"dcgso_n_cap" FLOAT DOUBLE
"dcgdo_n_cap" FLOAT DOUBLE
"dcgsl_n_cap" FLOAT DOUBLE
"dcgdl_n_cap" FLOAT DOUBLE
"dcj_n_cap" FLOAT DOUBLE
"dcjsw_n_cap" FLOAT DOUBLE
"dcjswg_n_cap" FLOAT DOUBLE
"tox_p_cap" FLOAT DOUBLE
"dxl_p_cap" FLOAT DOUBLE
"dxw_p_cap" FLOAT DOUBLE
"dvth0_p_cap" FLOAT DOUBLE
"dlvth0_p_cap" FLOAT DOUBLE
"dwvth0_p_cap" FLOAT DOUBLE
"dpvth0_p_cap" FLOAT DOUBLE
"du0_p_cap" FLOAT DOUBLE
"dlu0_p_cap" FLOAT DOUBLE
"dwu0_p_cap" FLOAT DOUBLE
"dpu0_p_cap" FLOAT DOUBLE
"dvsat_p_cap" FLOAT DOUBLE
"dcgso_p_cap" FLOAT DOUBLE
"dcgdo_p_cap" FLOAT DOUBLE
"dcgsl_p_cap" FLOAT DOUBLE
"dcgdl_p_cap" FLOAT DOUBLE
"dcj_p_cap" FLOAT DOUBLE
"dcjsw_p_cap" FLOAT DOUBLE
"dcjswg_p_cap" FLOAT DOUBLE
"random13_cap" FLOAT DOUBLE
"random14_cap" FLOAT DOUBLE
"random15_cap" FLOAT DOUBLE
"random16_cap" FLOAT DOUBLE
"a13_cap" FLOAT DOUBLE
"a14_cap" FLOAT DOUBLE
"a15_cap" FLOAT DOUBLE
"a16_cap" FLOAT DOUBLE
"tox_n_18_cap" FLOAT DOUBLE
"dxl_n_18_cap" FLOAT DOUBLE
"dxw_n_18_cap" FLOAT DOUBLE
"dvth0_n_18_cap" FLOAT DOUBLE
"dlvth0_n_18_cap" FLOAT DOUBLE
"dwvth0_n_18_cap" FLOAT DOUBLE
"dpvth0_n_18_cap" FLOAT DOUBLE
"du0_n_18_cap" FLOAT DOUBLE
"dlu0_n_18_cap" FLOAT DOUBLE
"dwu0_n_18_cap" FLOAT DOUBLE
"dpu0_n_18_cap" FLOAT DOUBLE
"dvsat_n_18_cap" FLOAT DOUBLE
"dcgso_n_18_cap" FLOAT DOUBLE
"dcgdo_n_18_cap" FLOAT DOUBLE
"dcgsl_n_18_cap" FLOAT DOUBLE
"dcgdl_n_18_cap" FLOAT DOUBLE
"dcj_n_18_cap" FLOAT DOUBLE
"dcjsw_n_18_cap" FLOAT DOUBLE
"dcjswg_n_18_cap" FLOAT DOUBLE
"tox_p_18_cap" FLOAT DOUBLE
"dxl_p_18_cap" FLOAT DOUBLE
"dxw_p_18_cap" FLOAT DOUBLE
"dvth0_p_18_cap" FLOAT DOUBLE
"dlvth0_p_18_cap" FLOAT DOUBLE
"dwvth0_p_18_cap" FLOAT DOUBLE
"dpvth0_p_18_cap" FLOAT DOUBLE
"du0_p_18_cap" FLOAT DOUBLE
"dlu0_p_18_cap" FLOAT DOUBLE
"dwu0_p_18_cap" FLOAT DOUBLE
"dpu0_p_18_cap" FLOAT DOUBLE
"dvsat_p_18_cap" FLOAT DOUBLE
"dcgso_p_18_cap" FLOAT DOUBLE
"dcgdo_p_18_cap" FLOAT DOUBLE
"dcgsl_p_18_cap" FLOAT DOUBLE
"dcgdl_p_18_cap" FLOAT DOUBLE
"dcj_p_18_cap" FLOAT DOUBLE
"dcjsw_p_18_cap" FLOAT DOUBLE
"dcjswg_p_18_cap" FLOAT DOUBLE
"random_r_resnwsti" FLOAT DOUBLE
"random_r_resnwoxide" FLOAT DOUBLE
"random_r_ressndiff" FLOAT DOUBLE
"random_dxw_ressndiff" FLOAT DOUBLE
"random_r_resspdiff" FLOAT DOUBLE
"random_dxw_resspdiff" FLOAT DOUBLE
"random_r_ressnpoly" FLOAT DOUBLE
"random_dxw_ressnpoly" FLOAT DOUBLE
"random_r_ressppoly" FLOAT DOUBLE
"random_dxw_ressppoly" FLOAT DOUBLE
"random_r_resnsndiff" FLOAT DOUBLE
"random_rend_resnsndiff" FLOAT DOUBLE
"random_dxw_resnsndiff" FLOAT DOUBLE
"random_r_resnspdiff" FLOAT DOUBLE
"random_rend_resnspdiff" FLOAT DOUBLE
"random_dxw_resnspdiff" FLOAT DOUBLE
"random_r_resnsnpoly" FLOAT DOUBLE
"random_rend_resnsnpoly" FLOAT DOUBLE
"random_dxw_resnsnpoly" FLOAT DOUBLE
"random_r_resnsppoly" FLOAT DOUBLE
"random_rend_resnsppoly" FLOAT DOUBLE
"random_dxl_resnsppoly" FLOAT DOUBLE
"random_r_resm1" FLOAT DOUBLE
"random_r_resm2" FLOAT DOUBLE
"random_r_resm3" FLOAT DOUBLE
"random_r_resm4" FLOAT DOUBLE
"random_r_resm5" FLOAT DOUBLE
"random_r_resm6" FLOAT DOUBLE
"random_r_resm7" FLOAT DOUBLE
"random_r_resm8" FLOAT DOUBLE
"random_r_resm9" FLOAT DOUBLE
"random_r_resm10" FLOAT DOUBLE
"random_r_resm11" FLOAT DOUBLE
"var_r_resnwsti" FLOAT DOUBLE
"var_r_resnwoxide" FLOAT DOUBLE
"var_r_ressndiff" FLOAT DOUBLE
"var_dxw_ressndiff" FLOAT DOUBLE
"var_r_resspdiff" FLOAT DOUBLE
"var_dxw_resspdiff" FLOAT DOUBLE
"var_r_ressnpoly" FLOAT DOUBLE
"var_dxw_ressnpoly" FLOAT DOUBLE
"var_r_ressppoly" FLOAT DOUBLE
"var_dxw_ressppoly" FLOAT DOUBLE
"var_r_resnsndiff" FLOAT DOUBLE
"var_rend_resnsndiff" FLOAT DOUBLE
"var_dxw_resnsndiff" FLOAT DOUBLE
"var_r_resnspdiff" FLOAT DOUBLE
"var_rend_resnspdiff" FLOAT DOUBLE
"var_dxw_resnspdiff" FLOAT DOUBLE
"var_r_resnsnpoly" FLOAT DOUBLE
"var_rend_resnsnpoly" FLOAT DOUBLE
"var_dxw_resnsnpoly" FLOAT DOUBLE
"var_r_resnsppoly" FLOAT DOUBLE
"var_rend_resnsppoly" FLOAT DOUBLE
"var_dxl_resnsppoly" FLOAT DOUBLE
"var_r_resm1" FLOAT DOUBLE
"var_r_resm2" FLOAT DOUBLE
"var_r_resm3" FLOAT DOUBLE
"var_r_resm4" FLOAT DOUBLE
"var_r_resm5" FLOAT DOUBLE
"var_r_resm6" FLOAT DOUBLE
"var_r_resm7" FLOAT DOUBLE
"var_r_resm8" FLOAT DOUBLE
"var_r_resm9" FLOAT DOUBLE
"var_r_resm10" FLOAT DOUBLE
"var_r_resm11" FLOAT DOUBLE
"par_r_resnwsti" FLOAT DOUBLE
"par_r_resnwoxide" FLOAT DOUBLE
"par_r_ressndiff" FLOAT DOUBLE
"par_dxw_ressndiff" FLOAT DOUBLE
"par_r_resspdiff" FLOAT DOUBLE
"par_dxw_resspdiff" FLOAT DOUBLE
"par_r_ressnpoly" FLOAT DOUBLE
"par_dxw_ressnpoly" FLOAT DOUBLE
"par_r_ressppoly" FLOAT DOUBLE
"par_dxw_ressppoly" FLOAT DOUBLE
"par_r_resnsndiff" FLOAT DOUBLE
"par_rend_resnsndiff" FLOAT DOUBLE
"par_dxw_resnsndiff" FLOAT DOUBLE
"par_r_resnspdiff" FLOAT DOUBLE
"par_rend_resnspdiff" FLOAT DOUBLE
"par_dxw_resnspdiff" FLOAT DOUBLE
"par_r_resnsnpoly" FLOAT DOUBLE
"par_rend_resnsnpoly" FLOAT DOUBLE
"par_dxw_resnsnpoly" FLOAT DOUBLE
"par_r_resnsppoly" FLOAT DOUBLE
"par_rend_resnsppoly" FLOAT DOUBLE
"par_dxl_resnsppoly" FLOAT DOUBLE
"par_r_resm1" FLOAT DOUBLE
"par_r_resm2" FLOAT DOUBLE
"par_r_resm3" FLOAT DOUBLE
"par_r_resm4" FLOAT DOUBLE
"par_r_resm5" FLOAT DOUBLE
"par_r_resm6" FLOAT DOUBLE
"par_r_resm7" FLOAT DOUBLE
"par_r_resm8" FLOAT DOUBLE
"par_r_resm9" FLOAT DOUBLE
"par_r_resm10" FLOAT DOUBLE
"par_r_resm11" FLOAT DOUBLE
"r_resnwsti" FLOAT DOUBLE
"r_resnwoxide" FLOAT DOUBLE
"r_ressndiff" FLOAT DOUBLE
"r_dxw_ressndiff" FLOAT DOUBLE
"r_resspdiff" FLOAT DOUBLE
"r_dxw_resspdiff" FLOAT DOUBLE
"r_ressnpoly" FLOAT DOUBLE
"r_dxw_ressnpoly" FLOAT DOUBLE
"r_ressppoly" FLOAT DOUBLE
"r_dxw_ressppoly" FLOAT DOUBLE
"r_resnsndiff" FLOAT DOUBLE
"r_rend_resnsndiff" FLOAT DOUBLE
"r_dxl_resnsndiff" FLOAT DOUBLE
"r_dxw_resnsndiff" FLOAT DOUBLE
"r_resnspdiff" FLOAT DOUBLE
"r_rend_resnspdiff" FLOAT DOUBLE
"r_dxl_resnspdiff" FLOAT DOUBLE
"r_dxw_resnspdiff" FLOAT DOUBLE
"r_resnsnpoly" FLOAT DOUBLE
"r_rend_resnsnpoly" FLOAT DOUBLE
"r_dxl_resnsnpoly" FLOAT DOUBLE
"r_dxw_resnsnpoly" FLOAT DOUBLE
"r_resnsppoly" FLOAT DOUBLE
"r_rend_resnsppoly" FLOAT DOUBLE
"r_dxw_resnsppoly" FLOAT DOUBLE
"r_dxl_resnsppoly" FLOAT DOUBLE
"r_resm1" FLOAT DOUBLE
"r_resm2" FLOAT DOUBLE
"r_resm3" FLOAT DOUBLE
"r_resm4" FLOAT DOUBLE
"r_resm5" FLOAT DOUBLE
"r_resm6" FLOAT DOUBLE
"r_resm7" FLOAT DOUBLE
"r_resm8" FLOAT DOUBLE
"r_resm9" FLOAT DOUBLE
"r_resm10" FLOAT DOUBLE
"r_resm11" FLOAT DOUBLE
"radom_r_resnwsti_m" FLOAT DOUBLE
"random_r_resnwoxide_m" FLOAT DOUBLE
"random_r_ressndiff_m" FLOAT DOUBLE
"random_r_resspdiff_m" FLOAT DOUBLE
"random_r_ressnpoly_dis" FLOAT DOUBLE
"random_r_ressppoly_dis" FLOAT DOUBLE
"random_r_resnsndiff_m" FLOAT DOUBLE
"random_rend_resnsndiff_m" FLOAT DOUBLE
"random_dxw_resnsndiff_m" FLOAT DOUBLE
"random_r_resnspdiff_m" FLOAT DOUBLE
"random_rend_resnspdiff_m" FLOAT DOUBLE
"random_dxw_resnspdiff_m" FLOAT DOUBLE
"random_r_resnsnpoly_dis" FLOAT DOUBLE
"random_rend_resnsnpoly_dis" FLOAT DOUBLE
"random_dxw_resnsnpoly_dis" FLOAT DOUBLE
"random_r_resnsppoly_dis" FLOAT DOUBLE
"random_rend_resnsppoly_dis" FLOAT DOUBLE
"random_dxw_resnsppoly_dis" FLOAT DOUBLE
"random_r_resm1_m" FLOAT DOUBLE
"random_r_resm2_m" FLOAT DOUBLE
"random_r_resm3_m" FLOAT DOUBLE
"random_r_resm4_m" FLOAT DOUBLE
"random_r_resm5_m" FLOAT DOUBLE
"random_r_resm6_m" FLOAT DOUBLE
"random_r_resm7_m" FLOAT DOUBLE
"random_r_resm8_m" FLOAT DOUBLE
"random_r_resm9_m" FLOAT DOUBLE
"random_r_resm10_m" FLOAT DOUBLE
"random_r_resm11_m" FLOAT DOUBLE
"var_r_resnwsti_m" FLOAT DOUBLE
"var_r_resnwoxide_m" FLOAT DOUBLE
"var_r_ressndiff_m" FLOAT DOUBLE
"var_r_resspdiff_m" FLOAT DOUBLE
"var_r_ressnpoly_dis" FLOAT DOUBLE
"var_r_ressppoly_dis" FLOAT DOUBLE
"var_r_resnsndiff_m" FLOAT DOUBLE
"var_rend_resnsndiff_m" FLOAT DOUBLE
"var_dxw_resnsndiff_m" FLOAT DOUBLE
"var_r_resnspdiff_m" FLOAT DOUBLE
"var_rend_resnspdiff_m" FLOAT DOUBLE
"var_dxw_resnspdiff_m" FLOAT DOUBLE
"var_r_resnsnpoly_dis" FLOAT DOUBLE
"var_rend_resnsnpoly_dis" FLOAT DOUBLE
"var_dxw_resnsnpoly_dis" FLOAT DOUBLE
"var_r_resnsppoly_dis" FLOAT DOUBLE
"var_rend_resnsppoly_dis" FLOAT DOUBLE
"var_dxw_resnsppoly_dis" FLOAT DOUBLE
"var_r_resm1_m" FLOAT DOUBLE
"var_r_resm2_m" FLOAT DOUBLE
"var_r_resm3_m" FLOAT DOUBLE
"var_r_resm4_m" FLOAT DOUBLE
"var_r_resm5_m" FLOAT DOUBLE
"var_r_resm6_m" FLOAT DOUBLE
"var_r_resm7_m" FLOAT DOUBLE
"var_r_resm8_m" FLOAT DOUBLE
"var_r_resm9_m" FLOAT DOUBLE
"var_r_resm10_m" FLOAT DOUBLE
"var_r_resm11_m" FLOAT DOUBLE
"par_r_resnwsti_m" FLOAT DOUBLE
"par_r_resnwoxide_m" FLOAT DOUBLE
"par_r_ressndiff_m" FLOAT DOUBLE
"par_r_resspdiff_m" FLOAT DOUBLE
"par_r_ressnpoly_dis" FLOAT DOUBLE
"par_r_ressppoly_dis" FLOAT DOUBLE
"par_r_resnsndiff_m" FLOAT DOUBLE
"par_rend_resnsndiff_m" FLOAT DOUBLE
"par_dxw_resnsndiff_m" FLOAT DOUBLE
"par_r_resnspdiff_m" FLOAT DOUBLE
"par_rend_resnspdiff_m" FLOAT DOUBLE
"par_dxw_resnspdiff_m" FLOAT DOUBLE
"par_r_resnsnpoly_dis" FLOAT DOUBLE
"par_rend_resnsnpoly_dis" FLOAT DOUBLE
"par_dxw_resnsnpoly_dis" FLOAT DOUBLE
"par_r_resnsppoly_dis" FLOAT DOUBLE
"par_rend_resnsppoly_dis" FLOAT DOUBLE
"par_dxw_resnsppoly_dis" FLOAT DOUBLE
"par_r_resm1_m" FLOAT DOUBLE
"par_r_resm2_m" FLOAT DOUBLE
"par_r_resm3_m" FLOAT DOUBLE
"par_r_resm4_m" FLOAT DOUBLE
"par_r_resm5_m" FLOAT DOUBLE
"par_r_resm6_m" FLOAT DOUBLE
"par_r_resm7_m" FLOAT DOUBLE
"par_r_resm8_m" FLOAT DOUBLE
"par_r_resm9_m" FLOAT DOUBLE
"par_r_resm10_m" FLOAT DOUBLE
"par_r_resm11_m" FLOAT DOUBLE
"r_resnwsti_m" FLOAT DOUBLE
"r_resnwoxide_m" FLOAT DOUBLE
"r_ressndiff_m" FLOAT DOUBLE
"r_resspdiff_m" FLOAT DOUBLE
"r_ressnpoly_dis" FLOAT DOUBLE
"r_ressppoly_dis" FLOAT DOUBLE
"r_resnsndiff_m" FLOAT DOUBLE
"r_rend_resnsndiff_m" FLOAT DOUBLE
"r_dxl_resnsndiff_m" FLOAT DOUBLE
"r_dxw_resnsndiff_m" FLOAT DOUBLE
"r_resnspdiff_m" FLOAT DOUBLE
"r_rend_resnspdiff_m" FLOAT DOUBLE
"r_dxl_resnspdiff_m" FLOAT DOUBLE
"r_dxw_resnspdiff_m" FLOAT DOUBLE
"r_resnsnpoly_dis" FLOAT DOUBLE
"r_rend_resnsnpoly_dis" FLOAT DOUBLE
"r_dxl_resnsnpoly_dis" FLOAT DOUBLE
"r_dxw_resnsnpoly_dis" FLOAT DOUBLE
"r_resnsppoly_dis" FLOAT DOUBLE
"r_rend_resnsppoly_dis" FLOAT DOUBLE
"r_dxl_resnsppoly_dis" FLOAT DOUBLE
"r_dxw_resnsppoly_dis" FLOAT DOUBLE
"r_resm1_m" FLOAT DOUBLE
"r_resm2_m" FLOAT DOUBLE
"r_resm3_m" FLOAT DOUBLE
"r_resm4_m" FLOAT DOUBLE
"r_resm5_m" FLOAT DOUBLE
"r_resm6_m" FLOAT DOUBLE
"r_resm7_m" FLOAT DOUBLE
"r_resm8_m" FLOAT DOUBLE
"r_resm9_m" FLOAT DOUBLE
"r_resm10_m" FLOAT DOUBLE
"r_resm11_m" FLOAT DOUBLE
"random_indfactor" FLOAT DOUBLE
"var_indfactor" FLOAT DOUBLE
"par_indfactor" FLOAT DOUBLE
"indfactor" FLOAT DOUBLE
) PROP(
"key" "parameters"
)
VALUE
"top-level" "top-level" (
2.700000000000000e+01
2.700000000000000e+01
2.700000000000000e+01
0.000000000000000e+00
2.700000000000000e+01
0.000000000000000e+00
0.000000000000000e+00
0.000000000000000e+00
0.000000000000000e+00
0.000000000000000e+00
0.000000000000000e+00
0.000000000000000e+00
0.000000000000000e+00
0.000000000000000e+00
0.000000000000000e+00
0.000000000000000e+00
0.000000000000000e+00
0.000000000000000e+00
0.000000000000000e+00
0.000000000000000e+00
0.000000000000000e+00
0.000000000000000e+00
0.000000000000000e+00
0.000000000000000e+00
0.000000000000000e+00
0.000000000000000e+00
0.000000000000000e+00
0.000000000000000e+00
0.000000000000000e+00
0.000000000000000e+00
0.000000000000000e+00
0.000000000000000e+00
0.000000000000000e+00
2.410000000000000e-09
0.000000000000000e+00
0.000000000000000e+00
0.000000000000000e+00
0.000000000000000e+00
0.000000000000000e+00
0.000000000000000e+00
0.000000000000000e+00
0.000000000000000e+00
0.000000000000000e+00
0.000000000000000e+00
0.000000000000000e+00
-0.000000000000000e+00
-0.000000000000000e+00
-0.000000000000000e+00
-0.000000000000000e+00
0.000000000000000e+00
0.000000000000000e+00
0.000000000000000e+00
2.400000000000000e-09
0.000000000000000e+00
0.000000000000000e+00
0.000000000000000e+00
0.000000000000000e+00
0.000000000000000e+00
0.000000000000000e+00
0.000000000000000e+00
0.000000000000000e+00
0.000000000000000e+00
0.000000000000000e+00
0.000000000000000e+00
-0.000000000000000e+00
-0.000000000000000e+00
-0.000000000000000e+00
-0.000000000000000e+00
0.000000000000000e+00
0.000000000000000e+00
0.000000000000000e+00
0.000000000000000e+00
0.000000000000000e+00
0.000000000000000e+00
0.000000000000000e+00
0.000000000000000e+00
0.000000000000000e+00
0.000000000000000e+00
0.000000000000000e+00
2.410000000000000e-09
0.000000000000000e+00
0.000000000000000e+00
0.000000000000000e+00
0.000000000000000e+00
0.000000000000000e+00
0.000000000000000e+00
0.000000000000000e+00
0.000000000000000e+00
0.000000000000000e+00
0.000000000000000e+00
0.000000000000000e+00
0.000000000000000e+00
0.000000000000000e+00
0.000000000000000e+00
-0.000000000000000e+00
-0.000000000000000e+00
-0.000000000000000e+00
-0.000000000000000e+00
2.410000000000000e-09
0.000000000000000e+00
0.000000000000000e+00
0.000000000000000e+00
0.000000000000000e+00
0.000000000000000e+00
0.000000000000000e+00
0.000000000000000e+00
0.000000000000000e+00
0.000000000000000e+00
0.000000000000000e+00
0.000000000000000e+00
0.000000000000000e+00
0.000000000000000e+00
0.000000000000000e+00
-0.000000000000000e+00
-0.000000000000000e+00
-0.000000000000000e+00
-0.000000000000000e+00
0.000000000000000e+00
0.000000000000000e+00
0.000000000000000e+00
0.000000000000000e+00
0.000000000000000e+00
0.000000000000000e+00
0.000000000000000e+00
0.000000000000000e+00
2.410000000000000e-09
0.000000000000000e+00
0.000000000000000e+00
0.000000000000000e+00
0.000000000000000e+00
0.000000000000000e+00
0.000000000000000e+00
0.000000000000000e+00
0.000000000000000e+00
0.000000000000000e+00
0.000000000000000e+00
0.000000000000000e+00
0.000000000000000e+00
-0.000000000000000e+00
-0.000000000000000e+00
-0.000000000000000e+00
-0.000000000000000e+00
0.000000000000000e+00
0.000000000000000e+00
0.000000000000000e+00
2.410000000000000e-09
0.000000000000000e+00
0.000000000000000e+00
0.000000000000000e+00
0.000000000000000e+00
0.000000000000000e+00
0.000000000000000e+00
0.000000000000000e+00
0.000000000000000e+00
0.000000000000000e+00
0.000000000000000e+00
0.000000000000000e+00
-0.000000000000000e+00
-0.000000000000000e+00
-0.000000000000000e+00
-0.000000000000000e+00
0.000000000000000e+00
0.000000000000000e+00
0.000000000000000e+00
0.000000000000000e+00
0.000000000000000e+00
0.000000000000000e+00
0.000000000000000e+00
0.000000000000000e+00
0.000000000000000e+00
0.000000000000000e+00
0.000000000000000e+00
2.410000000000000e-09
0.000000000000000e+00
0.000000000000000e+00
0.000000000000000e+00
0.000000000000000e+00
0.000000000000000e+00
0.000000000000000e+00
0.000000000000000e+00
0.000000000000000e+00
0.000000000000000e+00
0.000000000000000e+00
0.000000000000000e+00
-0.000000000000000e+00
-0.000000000000000e+00
0.000000000000000e+00
0.000000000000000e+00
0.000000000000000e+00
0.000000000000000e+00
0.000000000000000e+00
0.000000000000000e+00
0.000000000000000e+00
0.000000000000000e+00
0.000000000000000e+00
0.000000000000000e+00
0.000000000000000e+00
3.620000000000000e-09
0.000000000000000e+00
0.000000000000000e+00
0.000000000000000e+00
0.000000000000000e+00
0.000000000000000e+00
0.000000000000000e+00
0.000000000000000e+00
0.000000000000000e+00
0.000000000000000e+00
0.000000000000000e+00
0.000000000000000e+00
-0.000000000000000e+00
-0.000000000000000e+00
-0.000000000000000e+00
-0.000000000000000e+00
0.000000000000000e+00
0.000000000000000e+00
0.000000000000000e+00
2.400000000000000e-09
0.000000000000000e+00
0.000000000000000e+00
0.000000000000000e+00
0.000000000000000e+00
0.000000000000000e+00
0.000000000000000e+00
0.000000000000000e+00
0.000000000000000e+00
0.000000000000000e+00
0.000000000000000e+00
0.000000000000000e+00
0.000000000000000e+00
0.000000000000000e+00
0.000000000000000e+00
0.000000000000000e+00
0.000000000000000e+00
0.000000000000000e+00
0.000000000000000e+00
0.000000000000000e+00
0.000000000000000e+00
0.000000000000000e+00
0.000000000000000e+00
0.000000000000000e+00
0.000000000000000e+00
0.000000000000000e+00
0.000000000000000e+00
3.620000000000000e-09
0.000000000000000e+00
0.000000000000000e+00
0.000000000000000e+00
0.000000000000000e+00
0.000000000000000e+00
0.000000000000000e+00
0.000000000000000e+00
0.000000000000000e+00
0.000000000000000e+00
0.000000000000000e+00
0.000000000000000e+00
-0.000000000000000e+00
-0.000000000000000e+00
0.000000000000000e+00
0.000000000000000e+00
0.000000000000000e+00
0.000000000000000e+00
0.000000000000000e+00
0.000000000000000e+00
0.000000000000000e+00
0.000000000000000e+00
0.000000000000000e+00
1.000000000000000e+00
1.000000000000000e+00
0.000000000000000e+00
0.000000000000000e+00
0.000000000000000e+00
0.000000000000000e+00
1.000000000000000e+00
1.000000000000000e+00
0.000000000000000e+00
0.000000000000000e+00
0.000000000000000e+00
0.000000000000000e+00
1.000000000000000e+00
1.000000000000000e+00
1.000000000000000e+00
1.000000000000000e+00
1.000000000000000e+00
1.000000000000000e+00
0.000000000000000e+00
0.000000000000000e+00
1.000000000000000e+00
1.000000000000000e+00
1.000000000000000e+00
1.000000000000000e+00
1.000000000000000e+00
1.000000000000000e+00
0.000000000000000e+00
0.000000000000000e+00
1.000000000000000e+00
1.000000000000000e+00
1.000000000000000e+00
1.000000000000000e+00
1.000000000000000e+00
1.000000000000000e+00
0.000000000000000e+00
0.000000000000000e+00
1.000000000000000e+00
1.000000000000000e+00
1.000000000000000e+00
1.000000000000000e+00
1.000000000000000e+00
1.000000000000000e+00
0.000000000000000e+00
0.000000000000000e+00
1.000000000000000e+00
1.000000000000000e+00
1.000000000000000e+00
1.000000000000000e+00
1.000000000000000e+00
1.000000000000000e+00
0.000000000000000e+00
0.000000000000000e+00
1.000000000000000e+00
1.000000000000000e+00
1.000000000000000e+00
1.000000000000000e+00
1.000000000000000e+00
1.000000000000000e+00
0.000000000000000e+00
0.000000000000000e+00
1.000000000000000e+00
1.000000000000000e+00
1.000000000000000e+00
1.000000000000000e+00
1.000000000000000e+00
1.000000000000000e+00
1.000000000000000e+00
1.000000000000000e+00
1.000000000000000e+00
0.000000000000000e+00
0.000000000000000e+00
1.000000000000000e+00
1.000000000000000e+00
1.000000000000000e+00
1.000000000000000e+00
1.000000000000000e+00
1.000000000000000e+00
1.000000000000000e+00
1.000000000000000e+00
1.000000000000000e+00
0.000000000000000e+00
0.000000000000000e+00
0.000000000000000e+00
0.000000000000000e+00
1.000000000000000e+00
0.000000000000000e+00
0.000000000000000e+00
0.000000000000000e+00
0.000000000000000e+00
0.000000000000000e+00
0.000000000000000e+00
0.000000000000000e+00
0.000000000000000e+00
2.410000000000000e-09
0.000000000000000e+00
0.000000000000000e+00
0.000000000000000e+00
0.000000000000000e+00
0.000000000000000e+00
0.000000000000000e+00
0.000000000000000e+00
0.000000000000000e+00
0.000000000000000e+00
0.000000000000000e+00
0.000000000000000e+00
-0.000000000000000e+00
-0.000000000000000e+00
-0.000000000000000e+00
-0.000000000000000e+00
0.000000000000000e+00
0.000000000000000e+00
0.000000000000000e+00
2.400000000000000e-09
0.000000000000000e+00
0.000000000000000e+00
0.000000000000000e+00
0.000000000000000e+00
0.000000000000000e+00
0.000000000000000e+00
0.000000000000000e+00
0.000000000000000e+00
0.000000000000000e+00
0.000000000000000e+00
0.000000000000000e+00
-0.000000000000000e+00
-0.000000000000000e+00
-0.000000000000000e+00
-0.000000000000000e+00
0.000000000000000e+00
0.000000000000000e+00
0.000000000000000e+00
0.000000000000000e+00
0.000000000000000e+00
0.000000000000000e+00
0.000000000000000e+00
0.000000000000000e+00
0.000000000000000e+00
0.000000000000000e+00
0.000000000000000e+00
3.620000000000000e-09
0.000000000000000e+00
0.000000000000000e+00
0.000000000000000e+00
0.000000000000000e+00
0.000000000000000e+00
0.000000000000000e+00
0.000000000000000e+00
0.000000000000000e+00
0.000000000000000e+00
0.000000000000000e+00
0.000000000000000e+00
-0.000000000000000e+00
-0.000000000000000e+00
-0.000000000000000e+00
-0.000000000000000e+00
0.000000000000000e+00
0.000000000000000e+00
0.000000000000000e+00
2.400000000000000e-09
0.000000000000000e+00
0.000000000000000e+00
0.000000000000000e+00
0.000000000000000e+00
0.000000000000000e+00
0.000000000000000e+00
0.000000000000000e+00
0.000000000000000e+00
0.000000000000000e+00
0.000000000000000e+00
0.000000000000000e+00
0.000000000000000e+00
0.000000000000000e+00
0.000000000000000e+00
0.000000000000000e+00
0.000000000000000e+00
0.000000000000000e+00
0.000000000000000e+00
0.000000000000000e+00
0.000000000000000e+00
0.000000000000000e+00
0.000000000000000e+00
0.000000000000000e+00
0.000000000000000e+00
0.000000000000000e+00
0.000000000000000e+00
0.000000000000000e+00
0.000000000000000e+00
0.000000000000000e+00
0.000000000000000e+00
0.000000000000000e+00
0.000000000000000e+00