HEADER
"PSFversion" "1.00"
"Time Stamp" "Nov  5 17:26:32 2024"
TYPE
"variable" STRUCT(
"value" FLOAT DOUBLE
) PROP( "key" "element" )
VALUE
"temp" "variable" ( 50 ) PROP( )
END
