HEADER
"PSFversion" "1.00"
"design" "(\"logic_gates\" \"q1_expr\" \"schematic\" \"\")"
"simulator" "spectre"
"temperature" "27"
"host" ""
"date" "Nov  1 10:37:46 2024"
"title" ""
"analysisList" "()"
END
