HEADER
"PSFversion" "1.00"
"NM0n" "gpdk045_nmos1v_spectre"
"PM0n" "gpdk045_pmos1v_spectre"
