HEADER
"PSFversion" "1.00"
"design" "(\"logic_gates\" \"q4_expr\" \"schematic\" \"\")"
"simulator" "spectre"
"temperature" "27"
"host" ""
"date" "Nov  4 11:54:29 2024"
"title" ""
"analysisList" "()"
END
