HEADER
"PSFversion" "1.00"
"design" "(\"logic_gates\" \"not_gate\" \"schematic\" \"\")"
"simulator" "spectre"
"temperature" "27"
"host" ""
"date" "Oct 31 15:58:27 2024"
"title" ""
"analysisList" "()"
END
