HEADER
"PSFversion" "1.00"
"design" "(\"logic_gates\" \"lab3_nor_report\" \"schematic\" \"\")"
"simulator" "spectre"
"temperature" "27"
"host" ""
"date" "Nov  5 17:08:23 2024"
"title" ""
"analysisList" "()"
END
