HEADER
"PSFversion" "1.00"
"design" "(\"fanout-tests\" \"inverter\" \"schematic\" \"\")"
"simulator" "spectre"
"temperature" "27"
"host" ""
"date" "Oct 23 17:45:59 2024"
"title" ""
"analysisList" "()"
END
