HEADER
"PSFversion" "1.00"
"Time Stamp" "Nov  1 10:38:12 2024"
TYPE
"variable" STRUCT(
"value" FLOAT DOUBLE
) PROP( "key" "element" )
VALUE
"temp" "variable" ( 27 ) PROP( )
END
