HEADER
"PSFversion" "1.00"
"NM8n NM6n NM4n NM0n" "gpdk045_nmos1v_spectre"
"PM6n PM4n PM2n PM0n" "gpdk045_pmos1v_spectre"
