HEADER
"PSFversion" "1.00"
"NM11n NM8n NM6n" "gpdk045_nmos1v_spectre"
"PM9n PM6n PM4n" "gpdk045_pmos1v_spectre"
