HEADER
"PSFversion" "1.00"
"design" "(\"logic_gates\" \"q2_expr\" \"schematic\" \"\")"
"simulator" "spectre"
"temperature" "27"
"host" ""
"date" "Nov  4 09:20:30 2024"
"title" ""
"analysisList" "()"
END
