HEADER
"PSFversion" "1.00"
"Time Stamp" "Nov  4 09:20:30 2024"
TYPE
"variable" STRUCT(
"value" FLOAT DOUBLE
) PROP( "key" "element" )
VALUE
"temp" "variable" ( 27 ) PROP( )
END
