HEADER
"PSFversion" "1.00"
"Run Generator" "drlRun rev. 1.0"
"Run Time Stamp" "Oct 23 19:06:17 2024"
"date" "Oct 23 19:06:17 2024"
"simulator" "spectre"
"netlistDir" "../netlist"
"axlParamFlag" "true"
"#maeHistoryName" "ExplorerRun.0"
"#maeTestName" "fanout-tests_fanout-question-3_1"
 "externalSweepVariableCount" 1
TYPE
"runObject" STRUCT(
"logName" ARRAY( * ) STRING *
"parent" STRING *
"sweepVariable" ARRAY( * ) STRING *
) PROP( "key" "runObject" )
VALUE
"Root" "runObject" (
("")
""
("Design_Point")
)
"Design_Point=1.0" "runObject" (
(
"../../../1/fanout-tests_fanout-question-3_1/psf/logFile"
"../../../1/fanout-tests_fanout-question-3_1/psf/artistLogFile"
"../../../1/fanout-tests_fanout-question-3_1/psf/matlabLogFile"
)
"Root"
()
) PROP(
 "#maeDesignPoint" 1
"#maeCorner" "nom"
 "#pointID" 1
"netlistDir" "../../../1/fanout-tests_fanout-question-3_1/netlist"
"dataDir" "../../../1/fanout-tests_fanout-question-3_1"
 "Design_Point" 1.000000e+00
)

END
