HEADER
"PSFversion" "1.00"
"Run Generator" "drlRun rev. 1.0"
"Run Time Stamp" "Oct 23 19:02:54 2024"
"simulator" "spectre"
"date" "Oct 23 19:02:54 2024"
 "externalSweepVariableCount" 0
"#maeTestName" "fanout-tests_fanout-question-2_1"
"#maeHistoryName" "ExplorerRun.0"
"#maeCorner" "nom"
 "#maeDesignPoint" 1
"netlistDir" "../netlist"
TYPE
"runObject" STRUCT(
"logName" ARRAY( * ) STRING *
"parent" STRING *
"sweepVariable" ARRAY( * ) STRING *
) PROP( "key" "runObject" )
VALUE
"Run1" "runObject" (
(
"logFile"
"artistLogFile"
"matlabLogFile"
)
""
()
)
END
