HEADER
"PSFversion" "1.00"
"design" "(\"logic_gates\" \"nand_gate\" \"schematic\" \"\")"
"simulator" "spectre"
"temperature" "27"
"host" ""
"date" "Oct 31 17:28:15 2024"
"title" ""
"analysisList" "()"
END
