HEADER
"PSFversion" "1.00"
"design" "(\"fanout-tests\" \"fanout-question-4\" \"schematic\" \"\")"
"simulator" "spectre"
"temperature" "27"
"host" ""
"date" "Oct 24 15:49:27 2024"
"title" ""
"analysisList" "()"
END
