HEADER
"PSFversion" "1.00"
"design" "(\"logic_gates\" \"lab3_nor\" \"schematic\" \"\")"
"simulator" "spectre"
"temperature" "50"
"host" ""
"date" "Nov  5 17:26:25 2024"
"title" ""
"analysisList" "()"
END
