HEADER
"PSFversion" "1.00"
"design" "(\"logic_gates\" \"lab3_nand_report\" \"schematic\" \"\")"
"simulator" "spectre"
"temperature" "27"
"host" ""
"date" "Nov  7 09:49:49 2024"
"title" ""
"analysisList" "()"
END
