HEADER
"PSFversion" "1.00"
"design" "(\"logic_gates\" \"q3_expr\" \"schematic\" \"\")"
"simulator" "spectre"
"temperature" "27"
"host" ""
"date" "Nov  4 09:05:04 2024"
"title" ""
"analysisList" "()"
END
