HEADER
"PSFversion" "1.00"
"NM17n NM16n NM15n NM14n NM12n NM11n" "gpdk045_nmos1v_spectre"
"PM15n PM11n PM14n PM12n PM13n PM9n" "gpdk045_pmos1v_spectre"
"C0n" "analogLib_cap_spectre"
"IN_Cn IN_Bn IN_An" "analogLib_vpulse_spectre"
